<?xml version="1.0" encoding="UTF-8"?>

<!-- generated on 2024-12-26 20:42:11 by Eclipse SUMO GUI Version 1.21.0
<sumoConfiguration xmlns:xsi="http://www.w3.org/2001/XMLSchema-instance" xsi:noNamespaceSchemaLocation="http://sumo.dlr.de/xsd/sumoConfiguration.xsd">

    <input>
        <net-file value="Map_new.net.xml"/>
        <route-files value="Gaussian.rou.xml"/>
    </input>

    <output>
        <tripinfo-output value="tripinfo.xml"/>
    </output>

    <time>
        <step-length value="0.2"/>
    </time>

    <traci_server>
        <remote-port value="10545"/>
    </traci_server>

</sumoConfiguration>
-->

<tripinfos xmlns:xsi="http://www.w3.org/2001/XMLSchema-instance" xsi:noNamespaceSchemaLocation="http://sumo.dlr.de/xsd/tripinfo_file.xsd">
    <tripinfo id="CAV_0" depart="7.00" departLane="j8tj1_0" departPos="4.10" departSpeed="0.00" departDelay="0.00" arrival="52.60" arrivalLane="j3tj5_1" arrivalPos="120.15" arrivalSpeed="10.14" duration="45.60" routeLength="379.86" waitingTime="0.00" waitingCount="0" stopTime="0.00" timeLoss="19.13" rerouteNo="0" devices="tripinfo_CAV_0" vType="CAV" speedFactor="1.06" vaporized=""/>
    <tripinfo id="HDV_1" depart="25.00" departLane="j8tj1_0" departPos="4.10" departSpeed="0.00" departDelay="0.00" arrival="61.00" arrivalLane="j3tj5_1" arrivalPos="120.15" arrivalSpeed="12.96" duration="36.00" routeLength="379.86" waitingTime="0.00" waitingCount="0" stopTime="0.00" timeLoss="5.97" rerouteNo="0" devices="tripinfo_HDV_1" vType="HDV" speedFactor="0.94" vaporized=""/>
