<?xml version="1.0" encoding="UTF-8"?>

<!-- generated on 2025-01-08 14:36:20 by Eclipse SUMO GUI Version 1.21.0
<sumoConfiguration xmlns:xsi="http://www.w3.org/2001/XMLSchema-instance" xsi:noNamespaceSchemaLocation="http://sumo.dlr.de/xsd/sumoConfiguration.xsd">

    <input>
        <net-file value="Map_new.net.xml"/>
        <route-files value="Gaussian.rou.xml"/>
    </input>

    <output>
        <tripinfo-output value="tripinfo.xml"/>
    </output>

    <time>
        <step-length value="0.2"/>
    </time>

    <traci_server>
        <remote-port value="9019"/>
    </traci_server>

</sumoConfiguration>
-->

<tripinfos xmlns:xsi="http://www.w3.org/2001/XMLSchema-instance" xsi:noNamespaceSchemaLocation="http://sumo.dlr.de/xsd/tripinfo_file.xsd">
    <tripinfo id="CAV_0" depart="7.00" departLane="j8tj1_0" departPos="4.10" departSpeed="0.00" departDelay="0.00" arrival="47.80" arrivalLane="j3tj5_1" arrivalPos="120.15" arrivalSpeed="24.31" duration="40.80" routeLength="379.86" waitingTime="1.40" waitingCount="1" stopTime="0.00" timeLoss="14.18" rerouteNo="0" devices="tripinfo_CAV_0" vType="CAV" speedFactor="1.06" vaporized=""/>
    <tripinfo id="HDV_1" depart="25.00" departLane="j8tj1_0" departPos="4.10" departSpeed="0.00" departDelay="0.00" arrival="60.80" arrivalLane="j3tj5_1" arrivalPos="120.15" arrivalSpeed="12.81" duration="35.80" routeLength="379.86" waitingTime="0.00" waitingCount="0" stopTime="0.00" timeLoss="5.90" rerouteNo="0" devices="tripinfo_HDV_1" vType="HDV" speedFactor="0.94" vaporized=""/>
    <tripinfo id="HDV_4" depart="58.00" departLane="j8tj1_0" departPos="4.10" departSpeed="0.00" departDelay="0.00" arrival="121.80" arrivalLane="j3tj5_1" arrivalPos="120.15" arrivalSpeed="14.18" duration="63.80" routeLength="379.86" waitingTime="25.80" waitingCount="1" stopTime="0.00" timeLoss="36.52" rerouteNo="0" devices="tripinfo_HDV_4" vType="HDV" speedFactor="1.03" vaporized=""/>
    <tripinfo id="HDV_2" depart="30.00" departLane="j2tj3_0" departPos="4.10" departSpeed="0.00" departDelay="0.00" arrival="148.20" arrivalLane="j1tj8_0" arrivalPos="113.89" arrivalSpeed="13.88" duration="118.20" routeLength="418.80" waitingTime="75.20" waitingCount="2" stopTime="0.00" timeLoss="87.01" rerouteNo="0" devices="tripinfo_HDV_2" vType="HDV" speedFactor="1.01" vaporized=""/>
    <tripinfo id="HDV_5" depart="69.00" departLane="j6tj4_0" departPos="4.10" departSpeed="0.00" departDelay="0.00" arrival="162.20" arrivalLane="j3tj2_1" arrivalPos="148.65" arrivalSpeed="11.42" duration="93.20" routeLength="465.47" waitingTime="41.80" waitingCount="2" stopTime="0.00" timeLoss="52.72" rerouteNo="0" devices="tripinfo_HDV_5" vType="HDV" speedFactor="0.83" vaporized=""/>
    <tripinfo id="HDV_8" depart="107.00" departLane="j6tj4_0" departPos="4.10" departSpeed="0.00" departDelay="0.00" arrival="163.60" arrivalLane="j3tj2_1" arrivalPos="148.65" arrivalSpeed="12.85" duration="56.60" routeLength="465.47" waitingTime="7.60" waitingCount="1" stopTime="0.00" timeLoss="20.78" rerouteNo="0" devices="tripinfo_HDV_8" vType="HDV" speedFactor="0.94" vaporized=""/>
    <tripinfo id="CAV_3" depart="44.00" departLane="j2tj3_0" departPos="4.10" departSpeed="0.00" departDelay="0.00" arrival="164.40" arrivalLane="j1tj8_0" arrivalPos="113.89" arrivalSpeed="22.83" duration="120.40" routeLength="418.80" waitingTime="28.20" waitingCount="2" stopTime="0.00" timeLoss="91.23" rerouteNo="0" devices="tripinfo_CAV_3" vType="CAV" speedFactor="1.08" vaporized=""/>
    <tripinfo id="CAV_6" depart="74.00" departLane="j5tj3_0" departPos="4.10" departSpeed="0.00" departDelay="0.00" arrival="180.40" arrivalLane="j1tj8_0" arrivalPos="113.89" arrivalSpeed="22.70" duration="106.40" routeLength="393.16" waitingTime="25.80" waitingCount="2" stopTime="0.00" timeLoss="78.53" rerouteNo="0" devices="tripinfo_CAV_6" vType="CAV" speedFactor="1.05" vaporized=""/>
    <tripinfo id="HDV_7" depart="89.00" departLane="j5tj3_0" departPos="4.10" departSpeed="0.00" departDelay="0.00" arrival="184.40" arrivalLane="j1tj8_0" arrivalPos="113.89" arrivalSpeed="12.13" duration="95.40" routeLength="393.16" waitingTime="10.80" waitingCount="2" stopTime="0.00" timeLoss="62.57" rerouteNo="0" devices="tripinfo_HDV_7" vType="HDV" speedFactor="0.89" vaporized=""/>
    <tripinfo id="CAV_9" depart="129.00" departLane="j8tj1_0" departPos="4.10" departSpeed="0.00" departDelay="0.00" arrival="191.60" arrivalLane="j3tj5_1" arrivalPos="120.15" arrivalSpeed="25.01" duration="62.60" routeLength="379.86" waitingTime="21.00" waitingCount="1" stopTime="0.00" timeLoss="29.83" rerouteNo="0" devices="tripinfo_CAV_9" vType="CAV" speedFactor="0.86" vaporized=""/>
    <tripinfo id="HDV_11" depart="176.00" departLane="j6tj4_0" departPos="4.10" departSpeed="0.00" departDelay="0.00" arrival="231.80" arrivalLane="j3tj2_1" arrivalPos="148.65" arrivalSpeed="14.24" duration="55.80" routeLength="465.47" waitingTime="14.40" waitingCount="1" stopTime="0.00" timeLoss="23.09" rerouteNo="0" devices="tripinfo_HDV_11" vType="HDV" speedFactor="1.03" vaporized=""/>
    <tripinfo id="HDV_10" depart="165.00" departLane="j2tj3_0" departPos="4.10" departSpeed="0.00" departDelay="0.00" arrival="256.80" arrivalLane="j1tj8_0" arrivalPos="113.89" arrivalSpeed="14.97" duration="91.80" routeLength="418.80" waitingTime="53.80" waitingCount="1" stopTime="0.00" timeLoss="62.88" rerouteNo="0" devices="tripinfo_HDV_10" vType="HDV" speedFactor="1.09" vaporized=""/>
    <tripinfo id="CAV_12" depart="205.00" departLane="j2tj3_0" departPos="4.10" departSpeed="0.00" departDelay="0.00" arrival="262.40" arrivalLane="j1tj8_0" arrivalPos="113.89" arrivalSpeed="20.82" duration="57.40" routeLength="418.80" waitingTime="0.00" waitingCount="0" stopTime="0.00" timeLoss="27.24" rerouteNo="0" devices="tripinfo_CAV_12" vType="CAV" speedFactor="1.05" vaporized=""/>
    <tripinfo id="HDV_13" depart="226.00" departLane="j2tj3_0" departPos="4.10" departSpeed="0.00" departDelay="0.00" arrival="264.20" arrivalLane="j1tj8_0" arrivalPos="113.89" arrivalSpeed="15.55" duration="38.20" routeLength="418.80" waitingTime="0.00" waitingCount="0" stopTime="0.00" timeLoss="10.11" rerouteNo="0" devices="tripinfo_HDV_13" vType="HDV" speedFactor="1.12" vaporized=""/>
    <tripinfo id="HDV_14" depart="243.00" departLane="j8tj1_0" departPos="4.10" departSpeed="0.00" departDelay="0.00" arrival="277.60" arrivalLane="j3tj5_1" arrivalPos="120.15" arrivalSpeed="13.59" duration="34.60" routeLength="379.86" waitingTime="0.00" waitingCount="0" stopTime="0.00" timeLoss="6.28" rerouteNo="0" devices="tripinfo_HDV_14" vType="HDV" speedFactor="0.99" vaporized=""/>
    <tripinfo id="CAV_15" depart="260.00" departLane="j2tj3_0" departPos="4.10" departSpeed="0.00" departDelay="0.00" arrival="329.40" arrivalLane="j1tj8_0" arrivalPos="113.89" arrivalSpeed="24.83" duration="69.40" routeLength="418.80" waitingTime="25.40" waitingCount="1" stopTime="0.00" timeLoss="35.22" rerouteNo="0" devices="tripinfo_CAV_15" vType="CAV" speedFactor="0.93" vaporized=""/>
    <tripinfo id="HDV_16" depart="266.00" departLane="j2tj3_0" departPos="4.10" departSpeed="0.00" departDelay="0.00" arrival="335.20" arrivalLane="j1tj8_0" arrivalPos="113.89" arrivalSpeed="11.95" duration="69.20" routeLength="418.80" waitingTime="21.60" waitingCount="1" stopTime="0.00" timeLoss="33.37" rerouteNo="0" devices="tripinfo_HDV_16" vType="HDV" speedFactor="0.88" vaporized=""/>
    <tripinfo id="HDV_17" depart="348.00" departLane="j8tj1_0" departPos="4.10" departSpeed="0.00" departDelay="0.00" arrival="386.00" arrivalLane="j3tj2_0" arrivalPos="148.65" arrivalSpeed="12.94" duration="38.00" routeLength="389.85" waitingTime="0.00" waitingCount="0" stopTime="0.00" timeLoss="6.57" rerouteNo="0" devices="tripinfo_HDV_17" vType="HDV" speedFactor="0.94" vaporized=""/>
    <tripinfo id="CAV_18" depart="368.00" departLane="j5tj3_0" departPos="4.10" departSpeed="0.00" departDelay="0.00" arrival="419.60" arrivalLane="j1tj8_0" arrivalPos="113.89" arrivalSpeed="24.63" duration="51.60" routeLength="393.16" waitingTime="10.20" waitingCount="1" stopTime="0.00" timeLoss="20.54" rerouteNo="0" devices="tripinfo_CAV_18" vType="CAV" speedFactor="0.94" vaporized=""/>
    <tripinfo id="HDV_19" depart="394.00" departLane="j2tj3_0" departPos="4.10" departSpeed="0.00" departDelay="0.00" arrival="463.60" arrivalLane="j4tj6_0" arrivalPos="129.61" arrivalSpeed="16.05" duration="69.60" routeLength="465.44" waitingTime="25.40" waitingCount="2" stopTime="0.00" timeLoss="40.63" rerouteNo="0" devices="tripinfo_HDV_19" vType="HDV" speedFactor="1.16" vaporized=""/>
    <tripinfo id="CAV_21" depart="458.00" departLane="j8tj1_0" departPos="4.10" departSpeed="0.00" departDelay="0.00" arrival="492.60" arrivalLane="j3tj2_0" arrivalPos="148.65" arrivalSpeed="25.11" duration="34.60" routeLength="389.85" waitingTime="0.00" waitingCount="0" stopTime="0.00" timeLoss="5.11" rerouteNo="0" devices="tripinfo_CAV_21" vType="CAV" speedFactor="1.01" vaporized=""/>
    <tripinfo id="HDV_20" depart="400.00" departLane="j5tj3_0" departPos="4.10" departSpeed="0.00" departDelay="0.00" arrival="508.00" arrivalLane="j1tj8_0" arrivalPos="113.89" arrivalSpeed="13.96" duration="108.00" routeLength="393.16" waitingTime="67.00" waitingCount="2" stopTime="0.00" timeLoss="79.59" rerouteNo="0" devices="tripinfo_HDV_20" vType="HDV" speedFactor="1.02" vaporized=""/>
    <tripinfo id="HDV_23" depart="478.00" departLane="j8tj1_0" departPos="4.10" departSpeed="0.00" departDelay="0.00" arrival="517.40" arrivalLane="j3tj2_0" arrivalPos="148.65" arrivalSpeed="12.18" duration="39.40" routeLength="389.85" waitingTime="0.00" waitingCount="0" stopTime="0.00" timeLoss="6.25" rerouteNo="0" devices="tripinfo_HDV_23" vType="HDV" speedFactor="0.89" vaporized=""/>
    <tripinfo id="HDV_25" depart="485.00" departLane="j8tj1_0" departPos="4.10" departSpeed="0.00" departDelay="0.00" arrival="524.80" arrivalLane="j3tj2_0" arrivalPos="148.65" arrivalSpeed="12.07" duration="39.80" routeLength="389.85" waitingTime="0.00" waitingCount="0" stopTime="0.00" timeLoss="5.95" rerouteNo="0" devices="tripinfo_HDV_25" vType="HDV" speedFactor="0.87" vaporized=""/>
    <tripinfo id="CAV_27" depart="490.00" departLane="j2tj3_0" departPos="4.10" departSpeed="0.00" departDelay="0.00" arrival="545.40" arrivalLane="j1tj8_0" arrivalPos="113.89" arrivalSpeed="24.47" duration="55.40" routeLength="418.80" waitingTime="12.20" waitingCount="1" stopTime="0.00" timeLoss="22.15" rerouteNo="0" devices="tripinfo_CAV_27" vType="CAV" speedFactor="0.95" vaporized=""/>
    <tripinfo id="HDV_22" depart="462.00" departLane="j8tj1_0" departPos="4.10" departSpeed="0.00" departDelay="0.00" arrival="554.00" arrivalLane="j3tj5_1" arrivalPos="120.15" arrivalSpeed="13.32" duration="92.00" routeLength="379.86" waitingTime="54.00" waitingCount="1" stopTime="0.00" timeLoss="63.05" rerouteNo="0" devices="tripinfo_HDV_22" vType="HDV" speedFactor="0.97" vaporized=""/>
    <tripinfo id="CAV_30" depart="561.00" departLane="j2tj3_0" departPos="4.10" departSpeed="0.00" departDelay="0.00" arrival="582.80" arrivalLane="j4tj6_1" arrivalPos="129.61" arrivalSpeed="42.74" duration="21.80" routeLength="465.44" waitingTime="0.00" waitingCount="0" stopTime="0.00" timeLoss="-6.86" rerouteNo="0" devices="tripinfo_CAV_30" vType="CAV" speedFactor="1.18" vaporized=""/>
    <tripinfo id="HDV_28" depart="511.00" departLane="j2tj3_0" departPos="4.10" departSpeed="0.00" departDelay="0.00" arrival="597.20" arrivalLane="j1tj8_0" arrivalPos="113.89" arrivalSpeed="15.70" duration="86.20" routeLength="418.80" waitingTime="44.80" waitingCount="1" stopTime="0.00" timeLoss="58.49" rerouteNo="0" devices="tripinfo_HDV_28" vType="HDV" speedFactor="1.13" vaporized=""/>
    <tripinfo id="HDV_26" depart="486.00" departLane="j5tj3_0" departPos="4.10" departSpeed="0.00" departDelay="0.00" arrival="600.20" arrivalLane="j1tj8_0" arrivalPos="113.89" arrivalSpeed="12.71" duration="114.20" routeLength="393.16" waitingTime="67.40" waitingCount="2" stopTime="0.00" timeLoss="82.64" rerouteNo="0" devices="tripinfo_HDV_26" vType="HDV" speedFactor="0.92" vaporized=""/>
    <tripinfo id="HDV_29" depart="524.00" departLane="j2tj3_0" departPos="4.10" departSpeed="0.00" departDelay="0.00" arrival="619.40" arrivalLane="j1tj8_0" arrivalPos="113.89" arrivalSpeed="12.68" duration="95.40" routeLength="418.80" waitingTime="54.00" waitingCount="1" stopTime="0.00" timeLoss="61.57" rerouteNo="0" devices="tripinfo_HDV_29" vType="HDV" speedFactor="0.93" vaporized=""/>
    <tripinfo id="HDV_31" depart="595.00" departLane="j2tj3_0" departPos="4.10" departSpeed="0.00" departDelay="0.00" arrival="628.60" arrivalLane="j1tj8_0" arrivalPos="113.89" arrivalSpeed="15.99" duration="33.60" routeLength="418.80" waitingTime="0.00" waitingCount="0" stopTime="0.00" timeLoss="6.34" rerouteNo="0" devices="tripinfo_HDV_31" vType="HDV" speedFactor="1.15" vaporized=""/>
    <tripinfo id="CAV_33" depart="607.00" departLane="j8tj1_0" departPos="4.10" departSpeed="0.00" departDelay="0.00" arrival="632.80" arrivalLane="j3tj5_1" arrivalPos="120.15" arrivalSpeed="32.68" duration="25.80" routeLength="379.86" waitingTime="0.00" waitingCount="0" stopTime="0.00" timeLoss="1.46" rerouteNo="0" devices="tripinfo_CAV_33" vType="CAV" speedFactor="1.17" vaporized=""/>
    <tripinfo id="HDV_32" depart="600.00" departLane="j5tj3_0" departPos="4.10" departSpeed="0.00" departDelay="0.00" arrival="635.00" arrivalLane="j1tj8_0" arrivalPos="113.89" arrivalSpeed="13.92" duration="35.00" routeLength="393.16" waitingTime="0.00" waitingCount="0" stopTime="0.00" timeLoss="5.99" rerouteNo="0" devices="tripinfo_HDV_32" vType="HDV" speedFactor="1.01" vaporized=""/>
    <tripinfo id="HDV_34" depart="609.40" departLane="j8tj1_0" departPos="4.10" departSpeed="0.00" departDelay="0.40" arrival="646.20" arrivalLane="j3tj2_0" arrivalPos="148.65" arrivalSpeed="13.61" duration="36.80" routeLength="389.85" waitingTime="0.00" waitingCount="0" stopTime="0.00" timeLoss="7.12" rerouteNo="0" devices="tripinfo_HDV_34" vType="HDV" speedFactor="0.99" vaporized=""/>
    <tripinfo id="HDV_35" depart="642.00" departLane="j5tj3_0" departPos="4.10" departSpeed="0.00" departDelay="0.00" arrival="708.00" arrivalLane="j1tj8_0" arrivalPos="113.89" arrivalSpeed="13.93" duration="66.00" routeLength="393.16" waitingTime="28.40" waitingCount="1" stopTime="0.00" timeLoss="37.47" rerouteNo="0" devices="tripinfo_HDV_35" vType="HDV" speedFactor="1.02" vaporized=""/>
    <tripinfo id="CAV_39" depart="723.00" departLane="j8tj1_0" departPos="4.10" departSpeed="0.00" departDelay="0.00" arrival="758.00" arrivalLane="j3tj2_0" arrivalPos="148.65" arrivalSpeed="25.44" duration="35.00" routeLength="389.85" waitingTime="0.00" waitingCount="0" stopTime="0.00" timeLoss="1.88" rerouteNo="0" devices="tripinfo_CAV_39" vType="CAV" speedFactor="0.90" vaporized=""/>
    <tripinfo id="CAV_42" depart="771.00" departLane="j8tj1_0" departPos="4.10" departSpeed="0.00" departDelay="0.00" arrival="797.80" arrivalLane="j3tj2_0" arrivalPos="148.65" arrivalSpeed="32.25" duration="26.80" routeLength="389.85" waitingTime="0.00" waitingCount="0" stopTime="0.00" timeLoss="-0.30" rerouteNo="0" devices="tripinfo_CAV_42" vType="CAV" speedFactor="1.09" vaporized=""/>
    <tripinfo id="CAV_24" depart="479.00" departLane="j2tj3_0" departPos="4.10" departSpeed="0.00" departDelay="0.00" arrival="838.40" arrivalLane="j4tj6_0" arrivalPos="129.61" arrivalSpeed="22.49" duration="359.40" routeLength="438.19" waitingTime="304.80" waitingCount="2" stopTime="0.00" timeLoss="321.43" rerouteNo="0" devices="tripinfo_CAV_24" vType="CAV" speedFactor="0.83" vaporized=""/>
    <tripinfo id="CAV_45" depart="811.00" departLane="j8tj1_0" departPos="4.10" departSpeed="0.00" departDelay="0.00" arrival="838.40" arrivalLane="j3tj2_0" arrivalPos="148.65" arrivalSpeed="31.30" duration="27.40" routeLength="389.85" waitingTime="0.00" waitingCount="0" stopTime="0.00" timeLoss="0.23" rerouteNo="0" devices="tripinfo_CAV_45" vType="CAV" speedFactor="1.09" vaporized=""/>
    <tripinfo id="HDV_40" depart="759.00" departLane="j8tj1_0" departPos="4.10" departSpeed="0.00" departDelay="0.00" arrival="841.60" arrivalLane="j3tj5_1" arrivalPos="120.15" arrivalSpeed="14.24" duration="82.60" routeLength="379.86" waitingTime="45.20" waitingCount="1" stopTime="0.00" timeLoss="55.42" rerouteNo="0" devices="tripinfo_HDV_40" vType="HDV" speedFactor="1.03" vaporized=""/>
    <tripinfo id="HDV_43" depart="773.40" departLane="j8tj1_0" departPos="4.10" departSpeed="0.00" departDelay="2.40" arrival="843.20" arrivalLane="j3tj5_1" arrivalPos="120.15" arrivalSpeed="14.16" duration="69.80" routeLength="379.86" waitingTime="28.00" waitingCount="1" stopTime="0.00" timeLoss="42.56" rerouteNo="0" devices="tripinfo_HDV_43" vType="HDV" speedFactor="1.04" vaporized=""/>
    <tripinfo id="HDV_46" depart="813.40" departLane="j8tj1_0" departPos="4.10" departSpeed="0.00" departDelay="1.40" arrival="848.40" arrivalLane="j3tj5_1" arrivalPos="120.15" arrivalSpeed="13.69" duration="35.00" routeLength="379.86" waitingTime="0.00" waitingCount="0" stopTime="0.00" timeLoss="6.84" rerouteNo="0" devices="tripinfo_HDV_46" vType="HDV" speedFactor="1.00" vaporized=""/>
