<?xml version="1.0" encoding="UTF-8"?>

<!-- generated on 2024-12-12 12:47:49 by Eclipse SUMO GUI Version 1.21.0
<sumoConfiguration xmlns:xsi="http://www.w3.org/2001/XMLSchema-instance" xsi:noNamespaceSchemaLocation="http://sumo.dlr.de/xsd/sumoConfiguration.xsd">

    <input>
        <net-file value="Map_new.net.xml"/>
        <route-files value="Gaussian.rou.xml"/>
    </input>

    <output>
        <tripinfo-output value="tripinfo.xml"/>
    </output>

    <time>
        <step-length value="0.2"/>
    </time>

    <traci_server>
        <remote-port value="4979"/>
    </traci_server>

</sumoConfiguration>
-->

<tripinfos xmlns:xsi="http://www.w3.org/2001/XMLSchema-instance" xsi:noNamespaceSchemaLocation="http://sumo.dlr.de/xsd/tripinfo_file.xsd">
    <tripinfo id="CAV_3" depart="0.00" departLane="j5tj3_0" departPos="5.10" departSpeed="0.00" departDelay="0.00" arrival="32.40" arrivalLane="j1tj8_0" arrivalPos="113.89" arrivalSpeed="13.38" duration="32.40" routeLength="392.16" waitingTime="0.00" waitingCount="0" stopTime="0.00" timeLoss="5.61" rerouteNo="0" devices="tripinfo_CAV_3" vType="DEFAULT_VEHTYPE" speedFactor="1.08" vaporized=""/>
    <tripinfo id="CAV_18" depart="4.40" departLane="j5tj3_0" departPos="5.10" departSpeed="0.00" departDelay="4.40" arrival="34.60" arrivalLane="j1tj8_0" arrivalPos="113.89" arrivalSpeed="13.89" duration="30.20" routeLength="364.66" waitingTime="0.00" waitingCount="0" stopTime="0.00" timeLoss="2.16" rerouteNo="0" devices="tripinfo_CAV_18" vType="DEFAULT_VEHTYPE" speedFactor="0.94" vaporized=""/>
    <tripinfo id="CAV_0" depart="0.00" departLane="j2tj3_0" departPos="5.10" departSpeed="0.00" departDelay="0.00" arrival="35.20" arrivalLane="j4tj6_1" arrivalPos="129.61" arrivalSpeed="14.64" duration="35.20" routeLength="464.44" waitingTime="0.00" waitingCount="0" stopTime="0.00" timeLoss="3.61" rerouteNo="0" devices="tripinfo_CAV_0" vType="DEFAULT_VEHTYPE" speedFactor="1.06" vaporized=""/>
    <tripinfo id="HDV_2" depart="0.00" departLane="j6tj4_0" departPos="5.10" departSpeed="0.00" departDelay="0.00" arrival="36.80" arrivalLane="j3tj2_1" arrivalPos="148.65" arrivalSpeed="13.78" duration="36.80" routeLength="464.47" waitingTime="0.00" waitingCount="0" stopTime="0.00" timeLoss="3.55" rerouteNo="0" devices="tripinfo_HDV_2" vType="DEFAULT_VEHTYPE" speedFactor="1.01" vaporized=""/>
    <tripinfo id="HDV_4" depart="2.60" departLane="j6tj4_0" departPos="5.10" departSpeed="0.00" departDelay="2.60" arrival="38.80" arrivalLane="j3tj2_1" arrivalPos="148.65" arrivalSpeed="14.23" duration="36.20" routeLength="464.47" waitingTime="0.00" waitingCount="0" stopTime="0.00" timeLoss="3.70" rerouteNo="0" devices="tripinfo_HDV_4" vType="DEFAULT_VEHTYPE" speedFactor="1.03" vaporized=""/>
    <tripinfo id="CAV_9" depart="6.60" departLane="j2tj3_0" departPos="5.10" departSpeed="0.00" departDelay="6.60" arrival="38.80" arrivalLane="j1tj8_0" arrivalPos="113.89" arrivalSpeed="13.89" duration="32.20" routeLength="393.16" waitingTime="0.00" waitingCount="0" stopTime="0.00" timeLoss="-0.77" rerouteNo="0" devices="tripinfo_CAV_9" vType="DEFAULT_VEHTYPE" speedFactor="0.86" vaporized=""/>
    <tripinfo id="CAV_6" depart="4.00" departLane="j2tj3_0" departPos="5.10" departSpeed="0.00" departDelay="4.00" arrival="39.80" arrivalLane="j4tj6_1" arrivalPos="129.61" arrivalSpeed="14.45" duration="35.80" routeLength="464.44" waitingTime="0.00" waitingCount="0" stopTime="0.00" timeLoss="3.65" rerouteNo="0" devices="tripinfo_CAV_6" vType="DEFAULT_VEHTYPE" speedFactor="1.05" vaporized=""/>
    <tripinfo id="HDV_10" depart="5.40" departLane="j8tj1_0" departPos="5.10" departSpeed="0.00" departDelay="5.40" arrival="41.60" arrivalLane="j3tj2_0" arrivalPos="148.65" arrivalSpeed="14.94" duration="36.20" routeLength="388.85" waitingTime="0.00" waitingCount="0" stopTime="0.00" timeLoss="9.11" rerouteNo="0" devices="tripinfo_HDV_10" vType="DEFAULT_VEHTYPE" speedFactor="1.09" vaporized=""/>
    <tripinfo id="CAV_15" depart="10.40" departLane="j2tj3_0" departPos="5.10" departSpeed="0.00" departDelay="10.40" arrival="42.00" arrivalLane="j1tj8_0" arrivalPos="113.89" arrivalSpeed="13.89" duration="31.60" routeLength="393.16" waitingTime="0.00" waitingCount="0" stopTime="0.00" timeLoss="1.06" rerouteNo="0" devices="tripinfo_CAV_15" vType="DEFAULT_VEHTYPE" speedFactor="0.93" vaporized=""/>
    <tripinfo id="CAV_12" depart="8.00" departLane="j2tj3_0" departPos="5.10" departSpeed="0.00" departDelay="8.00" arrival="43.60" arrivalLane="j4tj6_1" arrivalPos="129.61" arrivalSpeed="14.41" duration="35.60" routeLength="464.44" waitingTime="0.00" waitingCount="0" stopTime="0.00" timeLoss="3.49" rerouteNo="0" devices="tripinfo_CAV_12" vType="DEFAULT_VEHTYPE" speedFactor="1.05" vaporized=""/>
    <tripinfo id="HDV_8" depart="5.40" departLane="j6tj4_0" departPos="5.10" departSpeed="0.00" departDelay="5.40" arrival="44.60" arrivalLane="j3tj2_1" arrivalPos="148.65" arrivalSpeed="12.86" duration="39.20" routeLength="464.47" waitingTime="0.00" waitingCount="0" stopTime="0.00" timeLoss="3.39" rerouteNo="0" devices="tripinfo_HDV_8" vType="DEFAULT_VEHTYPE" speedFactor="0.94" vaporized=""/>
    <tripinfo id="HDV_11" depart="8.00" departLane="j8tj1_0" departPos="5.10" departSpeed="0.00" departDelay="8.00" arrival="45.40" arrivalLane="j3tj2_0" arrivalPos="148.65" arrivalSpeed="14.21" duration="37.40" routeLength="388.85" waitingTime="0.00" waitingCount="0" stopTime="0.00" timeLoss="8.58" rerouteNo="0" devices="tripinfo_HDV_11" vType="DEFAULT_VEHTYPE" speedFactor="1.03" vaporized=""/>
    <tripinfo id="CAV_21" depart="13.20" departLane="j2tj3_0" departPos="5.10" departSpeed="0.00" departDelay="13.20" arrival="45.80" arrivalLane="j1tj8_0" arrivalPos="113.89" arrivalSpeed="13.89" duration="32.60" routeLength="393.16" waitingTime="0.00" waitingCount="0" stopTime="0.00" timeLoss="5.20" rerouteNo="0" devices="tripinfo_CAV_21" vType="DEFAULT_VEHTYPE" speedFactor="1.01" vaporized=""/>
    <tripinfo id="HDV_14" depart="10.60" departLane="j8tj1_0" departPos="5.10" departSpeed="0.00" departDelay="10.60" arrival="48.80" arrivalLane="j3tj2_0" arrivalPos="148.65" arrivalSpeed="13.72" duration="38.20" routeLength="388.85" waitingTime="0.00" waitingCount="0" stopTime="0.00" timeLoss="8.40" rerouteNo="0" devices="tripinfo_HDV_14" vType="DEFAULT_VEHTYPE" speedFactor="0.99" vaporized=""/>
    <tripinfo id="HDV_17" depart="13.20" departLane="j8tj1_0" departPos="5.10" departSpeed="0.00" departDelay="13.20" arrival="52.40" arrivalLane="j3tj2_0" arrivalPos="148.65" arrivalSpeed="12.89" duration="39.20" routeLength="388.85" waitingTime="0.00" waitingCount="0" stopTime="0.00" timeLoss="7.79" rerouteNo="0" devices="tripinfo_HDV_17" vType="DEFAULT_VEHTYPE" speedFactor="0.94" vaporized=""/>
    <tripinfo id="CAV_24" depart="21.00" departLane="j8tj1_0" departPos="5.10" departSpeed="0.00" departDelay="21.00" arrival="54.80" arrivalLane="j3tj5_0" arrivalPos="120.15" arrivalSpeed="13.89" duration="33.80" routeLength="351.32" waitingTime="0.00" waitingCount="0" stopTime="0.00" timeLoss="4.64" rerouteNo="0" devices="tripinfo_CAV_24" vType="DEFAULT_VEHTYPE" speedFactor="0.83" vaporized=""/>
    <tripinfo id="HDV_22" depart="18.40" departLane="j8tj1_0" departPos="5.10" departSpeed="0.00" departDelay="18.40" arrival="56.60" arrivalLane="j3tj2_0" arrivalPos="148.65" arrivalSpeed="13.52" duration="38.20" routeLength="388.85" waitingTime="0.00" waitingCount="0" stopTime="0.00" timeLoss="7.79" rerouteNo="0" devices="tripinfo_HDV_22" vType="DEFAULT_VEHTYPE" speedFactor="0.97" vaporized=""/>
    <tripinfo id="HDV_1" depart="2.60" departLane="j2tj3_0" departPos="5.10" departSpeed="0.00" departDelay="2.60" arrival="58.20" arrivalLane="j1tj8_0" arrivalPos="113.89" arrivalSpeed="12.82" duration="55.60" routeLength="417.80" waitingTime="14.60" waitingCount="1" stopTime="0.00" timeLoss="22.23" rerouteNo="0" devices="tripinfo_HDV_1" vType="DEFAULT_VEHTYPE" speedFactor="0.94" vaporized=""/>
    <tripinfo id="HDV_19" depart="11.60" departLane="j2tj3_0" departPos="5.10" departSpeed="0.00" departDelay="11.60" arrival="59.60" arrivalLane="j1tj8_0" arrivalPos="113.89" arrivalSpeed="16.07" duration="48.00" routeLength="417.80" waitingTime="2.80" waitingCount="1" stopTime="0.00" timeLoss="20.93" rerouteNo="0" devices="tripinfo_HDV_19" vType="DEFAULT_VEHTYPE" speedFactor="1.16" vaporized=""/>
    <tripinfo id="HDV_5" depart="0.00" departLane="j8tj1_0" departPos="5.10" departSpeed="0.00" departDelay="0.00" arrival="83.00" arrivalLane="j3tj5_1" arrivalPos="120.15" arrivalSpeed="11.48" duration="83.00" routeLength="378.86" waitingTime="39.60" waitingCount="1" stopTime="0.00" timeLoss="49.15" rerouteNo="0" devices="tripinfo_HDV_5" vType="DEFAULT_VEHTYPE" speedFactor="0.83" vaporized=""/>
    <tripinfo id="HDV_7" depart="2.80" departLane="j8tj1_0" departPos="5.10" departSpeed="0.00" departDelay="2.80" arrival="84.60" arrivalLane="j3tj5_1" arrivalPos="120.15" arrivalSpeed="12.27" duration="81.80" routeLength="378.86" waitingTime="34.80" waitingCount="1" stopTime="0.00" timeLoss="50.00" rerouteNo="0" devices="tripinfo_HDV_7" vType="DEFAULT_VEHTYPE" speedFactor="0.89" vaporized=""/>
    <tripinfo id="HDV_20" depart="15.80" departLane="j8tj1_0" departPos="5.10" departSpeed="0.00" departDelay="15.80" arrival="86.00" arrivalLane="j3tj5_1" arrivalPos="120.15" arrivalSpeed="13.90" duration="70.20" routeLength="378.86" waitingTime="23.80" waitingCount="1" stopTime="0.00" timeLoss="42.57" rerouteNo="0" devices="tripinfo_HDV_20" vType="DEFAULT_VEHTYPE" speedFactor="1.02" vaporized=""/>
    <tripinfo id="HDV_26" depart="23.60" departLane="j8tj1_0" departPos="5.10" departSpeed="0.00" departDelay="23.60" arrival="87.60" arrivalLane="j3tj5_1" arrivalPos="120.15" arrivalSpeed="12.60" duration="64.00" routeLength="378.86" waitingTime="14.80" waitingCount="1" stopTime="0.00" timeLoss="33.34" rerouteNo="0" devices="tripinfo_HDV_26" vType="DEFAULT_VEHTYPE" speedFactor="0.92" vaporized=""/>
    <tripinfo id="CAV_27" depart="54.00" departLane="j2tj3_0" departPos="5.10" departSpeed="0.00" departDelay="0.00" arrival="89.20" arrivalLane="j1tj8_0" arrivalPos="113.89" arrivalSpeed="13.04" duration="35.20" routeLength="417.80" waitingTime="0.00" waitingCount="0" stopTime="0.00" timeLoss="2.08" rerouteNo="0" devices="tripinfo_CAV_27" vType="DEFAULT_VEHTYPE" speedFactor="0.95" vaporized=""/>
    <tripinfo id="HDV_16" depart="2.20" departLane="j5tj3_0" departPos="5.10" departSpeed="0.00" departDelay="2.20" arrival="93.00" arrivalLane="j1tj8_0" arrivalPos="113.89" arrivalSpeed="12.18" duration="90.80" routeLength="392.16" waitingTime="50.00" waitingCount="1" stopTime="0.00" timeLoss="57.86" rerouteNo="0" devices="tripinfo_HDV_16" vType="DEFAULT_VEHTYPE" speedFactor="0.88" vaporized=""/>
    <tripinfo id="HDV_25" depart="14.80" departLane="j2tj3_0" departPos="5.10" departSpeed="0.00" departDelay="14.80" arrival="105.80" arrivalLane="j4tj6_0" arrivalPos="129.61" arrivalSpeed="11.95" duration="91.00" routeLength="464.44" waitingTime="45.40" waitingCount="1" stopTime="0.00" timeLoss="52.56" rerouteNo="0" devices="tripinfo_HDV_25" vType="DEFAULT_VEHTYPE" speedFactor="0.87" vaporized=""/>
    <tripinfo id="HDV_13" depart="8.00" departLane="j6tj4_0" departPos="5.10" departSpeed="0.00" departDelay="8.00" arrival="147.20" arrivalLane="j3tj2_1" arrivalPos="148.65" arrivalSpeed="15.59" duration="139.20" routeLength="464.47" waitingTime="98.00" waitingCount="1" stopTime="0.00" timeLoss="109.24" rerouteNo="0" devices="tripinfo_HDV_13" vType="DEFAULT_VEHTYPE" speedFactor="1.12" vaporized=""/>
    <tripinfo id="HDV_23" depart="10.80" departLane="j6tj4_0" departPos="5.10" departSpeed="0.00" departDelay="10.80" arrival="150.60" arrivalLane="j3tj2_1" arrivalPos="148.65" arrivalSpeed="12.10" duration="139.80" routeLength="464.47" waitingTime="90.80" waitingCount="1" stopTime="0.00" timeLoss="102.21" rerouteNo="0" devices="tripinfo_HDV_23" vType="DEFAULT_VEHTYPE" speedFactor="0.89" vaporized=""/>
    <tripinfo id="HDV_29" depart="262.00" departLane="j6tj4_0" departPos="5.10" departSpeed="0.00" departDelay="0.00" arrival="301.40" arrivalLane="j3tj2_1" arrivalPos="148.65" arrivalSpeed="12.75" duration="39.40" routeLength="464.47" waitingTime="0.00" waitingCount="0" stopTime="0.00" timeLoss="3.40" rerouteNo="0" devices="tripinfo_HDV_29" vType="DEFAULT_VEHTYPE" speedFactor="0.93" vaporized=""/>
    <tripinfo id="HDV_28" depart="209.00" departLane="j2tj3_0" departPos="5.10" departSpeed="0.00" departDelay="0.00" arrival="327.60" arrivalLane="j1tj8_0" arrivalPos="113.89" arrivalSpeed="15.59" duration="118.60" routeLength="417.80" waitingTime="76.80" waitingCount="2" stopTime="0.00" timeLoss="90.95" rerouteNo="0" devices="tripinfo_HDV_28" vType="DEFAULT_VEHTYPE" speedFactor="1.13" vaporized=""/>
    <tripinfo id="CAV_30" depart="340.00" departLane="j2tj3_0" departPos="5.10" departSpeed="0.00" departDelay="0.00" arrival="372.60" arrivalLane="j4tj6_1" arrivalPos="129.61" arrivalSpeed="16.28" duration="32.60" routeLength="464.44" waitingTime="0.00" waitingCount="0" stopTime="0.00" timeLoss="4.13" rerouteNo="0" devices="tripinfo_CAV_30" vType="DEFAULT_VEHTYPE" speedFactor="1.18" vaporized=""/>
</tripinfos>
