<?xml version="1.0" encoding="UTF-8"?>

<!-- generated on 2025-01-07 15:37:06 by Eclipse SUMO GUI Version 1.21.0
<sumoConfiguration xmlns:xsi="http://www.w3.org/2001/XMLSchema-instance" xsi:noNamespaceSchemaLocation="http://sumo.dlr.de/xsd/sumoConfiguration.xsd">

    <input>
        <net-file value="Map_new.net.xml"/>
        <route-files value="Gaussian.rou.xml"/>
    </input>

    <output>
        <tripinfo-output value="tripinfo.xml"/>
    </output>

    <time>
        <step-length value="0.2"/>
    </time>

    <traci_server>
        <remote-port value="10165"/>
    </traci_server>

</sumoConfiguration>
-->

<tripinfos xmlns:xsi="http://www.w3.org/2001/XMLSchema-instance" xsi:noNamespaceSchemaLocation="http://sumo.dlr.de/xsd/tripinfo_file.xsd">
    <tripinfo id="CAV_0" depart="7.00" departLane="j8tj1_0" departPos="4.10" departSpeed="0.00" departDelay="0.00" arrival="52.20" arrivalLane="j3tj5_1" arrivalPos="120.15" arrivalSpeed="9.08" duration="45.20" routeLength="379.86" waitingTime="0.00" waitingCount="0" stopTime="0.00" timeLoss="18.69" rerouteNo="0" devices="tripinfo_CAV_0" vType="CAV" speedFactor="1.06" vaporized=""/>
    <tripinfo id="HDV_1" depart="25.00" departLane="j8tj1_0" departPos="4.10" departSpeed="0.00" departDelay="0.00" arrival="60.80" arrivalLane="j3tj5_1" arrivalPos="120.15" arrivalSpeed="13.01" duration="35.80" routeLength="379.86" waitingTime="0.00" waitingCount="0" stopTime="0.00" timeLoss="5.90" rerouteNo="0" devices="tripinfo_HDV_1" vType="HDV" speedFactor="0.94" vaporized=""/>
    <tripinfo id="HDV_4" depart="58.00" departLane="j8tj1_0" departPos="4.10" departSpeed="0.00" departDelay="0.00" arrival="121.80" arrivalLane="j3tj5_1" arrivalPos="120.15" arrivalSpeed="14.26" duration="63.80" routeLength="379.86" waitingTime="25.80" waitingCount="1" stopTime="0.00" timeLoss="36.50" rerouteNo="0" devices="tripinfo_HDV_4" vType="HDV" speedFactor="1.03" vaporized=""/>
    <tripinfo id="HDV_2" depart="30.00" departLane="j2tj3_0" departPos="4.10" departSpeed="0.00" departDelay="0.00" arrival="148.20" arrivalLane="j1tj8_0" arrivalPos="113.89" arrivalSpeed="13.94" duration="118.20" routeLength="418.80" waitingTime="75.20" waitingCount="2" stopTime="0.00" timeLoss="87.01" rerouteNo="0" devices="tripinfo_HDV_2" vType="HDV" speedFactor="1.01" vaporized=""/>
    <tripinfo id="CAV_3" depart="44.00" departLane="j2tj3_0" departPos="4.10" departSpeed="0.00" departDelay="0.00" arrival="159.80" arrivalLane="j1tj8_0" arrivalPos="113.89" arrivalSpeed="3.82" duration="115.80" routeLength="418.80" waitingTime="29.00" waitingCount="3" stopTime="0.00" timeLoss="86.81" rerouteNo="0" devices="tripinfo_CAV_3" vType="CAV" speedFactor="1.08" vaporized=""/>
    <tripinfo id="HDV_5" depart="69.00" departLane="j6tj4_0" departPos="4.10" departSpeed="0.00" departDelay="0.00" arrival="162.20" arrivalLane="j3tj2_1" arrivalPos="148.65" arrivalSpeed="11.42" duration="93.20" routeLength="465.47" waitingTime="41.80" waitingCount="2" stopTime="0.00" timeLoss="52.72" rerouteNo="0" devices="tripinfo_HDV_5" vType="HDV" speedFactor="0.83" vaporized=""/>
    <tripinfo id="CAV_6" depart="74.00" departLane="j5tj3_0" departPos="4.10" departSpeed="0.00" departDelay="0.00" arrival="162.80" arrivalLane="j1tj8_0" arrivalPos="113.89" arrivalSpeed="6.73" duration="88.80" routeLength="393.16" waitingTime="17.20" waitingCount="3" stopTime="0.00" timeLoss="61.08" rerouteNo="0" devices="tripinfo_CAV_6" vType="CAV" speedFactor="1.05" vaporized=""/>
    <tripinfo id="HDV_8" depart="107.00" departLane="j6tj4_0" departPos="4.10" departSpeed="0.00" departDelay="0.00" arrival="163.60" arrivalLane="j3tj2_1" arrivalPos="148.65" arrivalSpeed="12.85" duration="56.60" routeLength="465.47" waitingTime="7.60" waitingCount="1" stopTime="0.00" timeLoss="20.78" rerouteNo="0" devices="tripinfo_HDV_8" vType="HDV" speedFactor="0.94" vaporized=""/>
    <tripinfo id="HDV_7" depart="89.00" departLane="j5tj3_0" departPos="4.10" departSpeed="0.00" departDelay="0.00" arrival="164.40" arrivalLane="j1tj8_0" arrivalPos="113.89" arrivalSpeed="8.31" duration="75.40" routeLength="393.16" waitingTime="5.40" waitingCount="1" stopTime="0.00" timeLoss="42.64" rerouteNo="0" devices="tripinfo_HDV_7" vType="HDV" speedFactor="0.89" vaporized=""/>
    <tripinfo id="CAV_9" depart="129.00" departLane="j8tj1_0" departPos="4.10" departSpeed="0.00" departDelay="0.00" arrival="164.80" arrivalLane="j3tj5_1" arrivalPos="120.15" arrivalSpeed="27.75" duration="35.80" routeLength="379.86" waitingTime="0.20" waitingCount="1" stopTime="0.00" timeLoss="2.87" rerouteNo="0" devices="tripinfo_CAV_9" vType="CAV" speedFactor="0.86" vaporized=""/>
    <tripinfo id="HDV_11" depart="176.00" departLane="j6tj4_0" departPos="4.10" departSpeed="0.00" departDelay="0.00" arrival="231.80" arrivalLane="j3tj2_1" arrivalPos="148.65" arrivalSpeed="14.24" duration="55.80" routeLength="465.47" waitingTime="14.40" waitingCount="1" stopTime="0.00" timeLoss="23.09" rerouteNo="0" devices="tripinfo_HDV_11" vType="HDV" speedFactor="1.03" vaporized=""/>
    <tripinfo id="HDV_10" depart="165.00" departLane="j2tj3_0" departPos="4.10" departSpeed="0.00" departDelay="0.00" arrival="256.80" arrivalLane="j1tj8_0" arrivalPos="113.89" arrivalSpeed="15.05" duration="91.80" routeLength="418.80" waitingTime="53.80" waitingCount="1" stopTime="0.00" timeLoss="62.90" rerouteNo="0" devices="tripinfo_HDV_10" vType="HDV" speedFactor="1.09" vaporized=""/>
    <tripinfo id="CAV_12" depart="205.00" departLane="j2tj3_0" departPos="4.10" departSpeed="0.00" departDelay="0.00" arrival="265.00" arrivalLane="j1tj8_0" arrivalPos="113.89" arrivalSpeed="10.79" duration="60.00" routeLength="418.80" waitingTime="0.00" waitingCount="0" stopTime="0.00" timeLoss="29.98" rerouteNo="0" devices="tripinfo_CAV_12" vType="CAV" speedFactor="1.05" vaporized=""/>
    <tripinfo id="HDV_13" depart="226.00" departLane="j2tj3_0" departPos="4.10" departSpeed="0.00" departDelay="0.00" arrival="266.40" arrivalLane="j1tj8_0" arrivalPos="113.89" arrivalSpeed="13.66" duration="40.40" routeLength="418.80" waitingTime="0.00" waitingCount="0" stopTime="0.00" timeLoss="12.46" rerouteNo="0" devices="tripinfo_HDV_13" vType="HDV" speedFactor="1.12" vaporized=""/>
    <tripinfo id="HDV_14" depart="243.00" departLane="j8tj1_0" departPos="4.10" departSpeed="0.00" departDelay="0.00" arrival="278.00" arrivalLane="j3tj5_1" arrivalPos="120.15" arrivalSpeed="13.62" duration="35.00" routeLength="379.86" waitingTime="0.00" waitingCount="0" stopTime="0.00" timeLoss="6.55" rerouteNo="0" devices="tripinfo_HDV_14" vType="HDV" speedFactor="0.99" vaporized=""/>
    <tripinfo id="CAV_15" depart="260.00" departLane="j2tj3_0" departPos="4.10" departSpeed="0.00" departDelay="0.00" arrival="282.20" arrivalLane="j1tj8_0" arrivalPos="113.89" arrivalSpeed="39.44" duration="22.20" routeLength="418.80" waitingTime="0.00" waitingCount="0" stopTime="0.00" timeLoss="-11.89" rerouteNo="0" devices="tripinfo_CAV_15" vType="CAV" speedFactor="0.93" vaporized=""/>
    <tripinfo id="HDV_16" depart="266.00" departLane="j2tj3_0" departPos="4.10" departSpeed="0.00" departDelay="0.00" arrival="332.60" arrivalLane="j1tj8_0" arrivalPos="113.89" arrivalSpeed="12.20" duration="66.60" routeLength="418.80" waitingTime="23.80" waitingCount="1" stopTime="0.00" timeLoss="30.86" rerouteNo="0" devices="tripinfo_HDV_16" vType="HDV" speedFactor="0.88" vaporized=""/>
    <tripinfo id="HDV_17" depart="348.00" departLane="j8tj1_0" departPos="4.10" departSpeed="0.00" departDelay="0.00" arrival="386.00" arrivalLane="j3tj2_0" arrivalPos="148.65" arrivalSpeed="12.94" duration="38.00" routeLength="389.85" waitingTime="0.00" waitingCount="0" stopTime="0.00" timeLoss="6.57" rerouteNo="0" devices="tripinfo_HDV_17" vType="HDV" speedFactor="0.94" vaporized=""/>
    <tripinfo id="CAV_18" depart="368.00" departLane="j5tj3_0" departPos="4.10" departSpeed="0.00" departDelay="0.00" arrival="429.60" arrivalLane="j1tj8_0" arrivalPos="113.89" arrivalSpeed="2.59" duration="61.60" routeLength="393.16" waitingTime="4.80" waitingCount="1" stopTime="0.00" timeLoss="30.67" rerouteNo="0" devices="tripinfo_CAV_18" vType="CAV" speedFactor="0.94" vaporized=""/>
    <tripinfo id="HDV_19" depart="394.00" departLane="j2tj3_0" departPos="4.10" departSpeed="0.00" departDelay="0.00" arrival="463.60" arrivalLane="j4tj6_0" arrivalPos="129.61" arrivalSpeed="16.05" duration="69.60" routeLength="465.44" waitingTime="25.40" waitingCount="2" stopTime="0.00" timeLoss="40.63" rerouteNo="0" devices="tripinfo_HDV_19" vType="HDV" speedFactor="1.16" vaporized=""/>
    <tripinfo id="HDV_20" depart="400.00" departLane="j5tj3_0" departPos="4.10" departSpeed="0.00" departDelay="0.00" arrival="508.00" arrivalLane="j1tj8_0" arrivalPos="113.89" arrivalSpeed="13.94" duration="108.00" routeLength="393.16" waitingTime="67.00" waitingCount="2" stopTime="0.00" timeLoss="79.54" rerouteNo="0" devices="tripinfo_HDV_20" vType="HDV" speedFactor="1.02" vaporized=""/>
    <tripinfo id="CAV_21" depart="458.00" departLane="j8tj1_0" departPos="4.10" departSpeed="0.00" departDelay="0.00" arrival="517.60" arrivalLane="j3tj2_0" arrivalPos="148.65" arrivalSpeed="0.98" duration="59.60" routeLength="389.85" waitingTime="0.00" waitingCount="0" stopTime="0.00" timeLoss="30.37" rerouteNo="0" devices="tripinfo_CAV_21" vType="CAV" speedFactor="1.01" vaporized=""/>
    <tripinfo id="HDV_23" depart="478.00" departLane="j8tj1_0" departPos="4.10" departSpeed="0.00" departDelay="0.00" arrival="518.60" arrivalLane="j3tj2_1" arrivalPos="148.65" arrivalSpeed="11.20" duration="40.60" routeLength="389.85" waitingTime="0.00" waitingCount="0" stopTime="0.00" timeLoss="7.35" rerouteNo="0" devices="tripinfo_HDV_23" vType="HDV" speedFactor="0.89" vaporized=""/>
    <tripinfo id="HDV_25" depart="485.00" departLane="j8tj1_0" departPos="4.10" departSpeed="0.00" departDelay="0.00" arrival="525.00" arrivalLane="j3tj2_0" arrivalPos="148.65" arrivalSpeed="11.86" duration="40.00" routeLength="389.85" waitingTime="0.00" waitingCount="0" stopTime="0.00" timeLoss="5.90" rerouteNo="0" devices="tripinfo_HDV_25" vType="HDV" speedFactor="0.87" vaporized=""/>
    <tripinfo id="CAV_27" depart="490.00" departLane="j2tj3_0" departPos="4.10" departSpeed="0.00" departDelay="0.00" arrival="543.40" arrivalLane="j1tj8_0" arrivalPos="113.89" arrivalSpeed="23.01" duration="53.40" routeLength="418.80" waitingTime="2.20" waitingCount="1" stopTime="0.00" timeLoss="20.13" rerouteNo="0" devices="tripinfo_CAV_27" vType="CAV" speedFactor="0.95" vaporized=""/>
    <tripinfo id="CAV_24" depart="479.00" departLane="j2tj3_0" departPos="4.10" departSpeed="0.00" departDelay="0.00" arrival="545.00" arrivalLane="j4tj6_0" arrivalPos="129.61" arrivalSpeed="19.53" duration="66.00" routeLength="465.44" waitingTime="0.00" waitingCount="0" stopTime="0.00" timeLoss="25.32" rerouteNo="0" devices="tripinfo_CAV_24" vType="CAV" speedFactor="0.83" vaporized=""/>
    <tripinfo id="HDV_28" depart="511.00" departLane="j2tj3_0" departPos="4.10" departSpeed="0.00" departDelay="0.00" arrival="546.60" arrivalLane="j1tj8_0" arrivalPos="113.89" arrivalSpeed="15.70" duration="35.60" routeLength="418.80" waitingTime="0.00" waitingCount="0" stopTime="0.00" timeLoss="7.78" rerouteNo="0" devices="tripinfo_HDV_28" vType="HDV" speedFactor="1.13" vaporized=""/>
    <tripinfo id="HDV_22" depart="462.00" departLane="j8tj1_0" departPos="4.10" departSpeed="0.00" departDelay="0.00" arrival="554.00" arrivalLane="j3tj5_1" arrivalPos="120.15" arrivalSpeed="13.28" duration="92.00" routeLength="379.86" waitingTime="53.80" waitingCount="1" stopTime="0.00" timeLoss="63.13" rerouteNo="0" devices="tripinfo_HDV_22" vType="HDV" speedFactor="0.97" vaporized=""/>
    <tripinfo id="CAV_30" depart="561.00" departLane="j2tj3_0" departPos="4.10" departSpeed="0.00" departDelay="0.00" arrival="582.80" arrivalLane="j4tj6_1" arrivalPos="129.61" arrivalSpeed="42.60" duration="21.80" routeLength="465.44" waitingTime="0.00" waitingCount="0" stopTime="0.00" timeLoss="-6.76" rerouteNo="0" devices="tripinfo_CAV_30" vType="CAV" speedFactor="1.18" vaporized=""/>
    <tripinfo id="HDV_26" depart="486.00" departLane="j5tj3_0" departPos="4.10" departSpeed="0.00" departDelay="0.00" arrival="598.80" arrivalLane="j1tj8_0" arrivalPos="113.89" arrivalSpeed="12.68" duration="112.80" routeLength="393.16" waitingTime="69.80" waitingCount="2" stopTime="0.00" timeLoss="81.24" rerouteNo="0" devices="tripinfo_HDV_26" vType="HDV" speedFactor="0.92" vaporized=""/>
    <tripinfo id="HDV_29" depart="524.00" departLane="j2tj3_0" departPos="4.10" departSpeed="0.00" departDelay="0.00" arrival="619.40" arrivalLane="j1tj8_0" arrivalPos="113.89" arrivalSpeed="12.76" duration="95.40" routeLength="418.80" waitingTime="54.00" waitingCount="1" stopTime="0.00" timeLoss="61.64" rerouteNo="0" devices="tripinfo_HDV_29" vType="HDV" speedFactor="0.93" vaporized=""/>
    <tripinfo id="HDV_31" depart="595.00" departLane="j2tj3_0" departPos="4.10" departSpeed="0.00" departDelay="0.00" arrival="628.60" arrivalLane="j1tj8_0" arrivalPos="113.89" arrivalSpeed="15.93" duration="33.60" routeLength="418.80" waitingTime="0.00" waitingCount="0" stopTime="0.00" timeLoss="6.40" rerouteNo="0" devices="tripinfo_HDV_31" vType="HDV" speedFactor="1.15" vaporized=""/>
    <tripinfo id="CAV_33" depart="607.00" departLane="j8tj1_0" departPos="4.10" departSpeed="0.00" departDelay="0.00" arrival="632.60" arrivalLane="j3tj5_1" arrivalPos="120.15" arrivalSpeed="32.31" duration="25.60" routeLength="379.86" waitingTime="0.00" waitingCount="0" stopTime="0.00" timeLoss="1.57" rerouteNo="0" devices="tripinfo_CAV_33" vType="CAV" speedFactor="1.17" vaporized=""/>
    <tripinfo id="HDV_32" depart="600.00" departLane="j5tj3_0" departPos="4.10" departSpeed="0.00" departDelay="0.00" arrival="635.00" arrivalLane="j1tj8_0" arrivalPos="113.89" arrivalSpeed="13.94" duration="35.00" routeLength="393.16" waitingTime="0.00" waitingCount="0" stopTime="0.00" timeLoss="6.05" rerouteNo="0" devices="tripinfo_HDV_32" vType="HDV" speedFactor="1.01" vaporized=""/>
    <tripinfo id="HDV_34" depart="609.40" departLane="j8tj1_0" departPos="4.10" departSpeed="0.00" departDelay="0.40" arrival="646.20" arrivalLane="j3tj2_0" arrivalPos="148.65" arrivalSpeed="13.58" duration="36.80" routeLength="389.85" waitingTime="0.00" waitingCount="0" stopTime="0.00" timeLoss="6.94" rerouteNo="0" devices="tripinfo_HDV_34" vType="HDV" speedFactor="0.99" vaporized=""/>
    <tripinfo id="HDV_35" depart="642.00" departLane="j5tj3_0" departPos="4.10" departSpeed="0.00" departDelay="0.00" arrival="708.00" arrivalLane="j1tj8_0" arrivalPos="113.89" arrivalSpeed="13.94" duration="66.00" routeLength="393.16" waitingTime="28.60" waitingCount="1" stopTime="0.00" timeLoss="37.56" rerouteNo="0" devices="tripinfo_HDV_35" vType="HDV" speedFactor="1.02" vaporized=""/>
    <tripinfo id="CAV_39" depart="723.00" departLane="j8tj1_0" departPos="4.10" departSpeed="0.00" departDelay="0.00" arrival="753.60" arrivalLane="j3tj2_0" arrivalPos="148.65" arrivalSpeed="29.43" duration="30.60" routeLength="389.85" waitingTime="0.00" waitingCount="0" stopTime="0.00" timeLoss="-2.65" rerouteNo="0" devices="tripinfo_CAV_39" vType="CAV" speedFactor="0.90" vaporized=""/>
