<?xml version="1.0" encoding="UTF-8"?>

<!-- generated on 2025-04-09 15:49:46 by Eclipse SUMO GUI Version 1.22.0
<sumoConfiguration xmlns:xsi="http://www.w3.org/2001/XMLSchema-instance" xsi:noNamespaceSchemaLocation="http://sumo.dlr.de/xsd/sumoConfiguration.xsd">

    <input>
        <net-file value="Map_new.net.xml"/>
        <route-files value="Gaussian.rou.xml"/>
    </input>

    <output>
        <tripinfo-output value="tripinfo.xml"/>
    </output>

    <time>
        <step-length value="0.2"/>
    </time>

    <traci_server>
        <remote-port value="14491"/>
        <num-clients value="8"/>
    </traci_server>

</sumoConfiguration>
-->

<tripinfos xmlns:xsi="http://www.w3.org/2001/XMLSchema-instance" xsi:noNamespaceSchemaLocation="http://sumo.dlr.de/xsd/tripinfo_file.xsd">
    <tripinfo id="CAV_6" depart="16.00" departLane="j4tj5_0" departPos="4.10" departSpeed="0.00" departDelay="0.00" arrival="87.20" arrivalLane="j6tj2_0" arrivalPos="206.53" arrivalSpeed="32.58" duration="71.20" routeLength="1034.07" waitingTime="0.00" waitingCount="0" stopTime="0.00" timeLoss="-0.82" rerouteNo="0" devices="tripinfo_CAV_6" vType="CAV" speedFactor="1.05" vaporized=""/>
    <tripinfo id="CAV_0" depart="0.00" departLane="j8tj7_0" departPos="4.10" departSpeed="0.00" departDelay="0.00" arrival="99.60" arrivalLane="j5tj4_0" arrivalPos="423.23" arrivalSpeed="44.53" duration="99.60" routeLength="1525.09" waitingTime="0.00" waitingCount="0" stopTime="0.00" timeLoss="-4.37" rerouteNo="0" devices="tripinfo_CAV_0" vType="CAV" speedFactor="1.06" vaporized=""/>
    <tripinfo id="CAV_9" depart="47.00" departLane="j9tj10_0" departPos="4.10" departSpeed="0.00" departDelay="0.00" arrival="125.40" arrivalLane="j5tj4_0" arrivalPos="423.23" arrivalSpeed="42.97" duration="78.40" routeLength="1146.53" waitingTime="0.00" waitingCount="0" stopTime="0.00" timeLoss="-19.18" rerouteNo="0" devices="tripinfo_CAV_9" vType="CAV" speedFactor="0.86" vaporized=""/>
    <tripinfo id="CAV_3" depart="10.00" departLane="j1tj5_0" departPos="4.10" departSpeed="0.00" departDelay="0.00" arrival="129.00" arrivalLane="j12tj13_1" arrivalPos="289.29" arrivalSpeed="34.12" duration="119.00" routeLength="1537.63" waitingTime="0.00" waitingCount="0" stopTime="0.00" timeLoss="15.88" rerouteNo="0" devices="tripinfo_CAV_3" vType="CAV" speedFactor="1.08" vaporized=""/>
    <tripinfo id="HDV_5" depart="15.00" departLane="j15tj11_0" departPos="4.10" departSpeed="0.00" departDelay="0.00" arrival="138.00" arrivalLane="j12tj13_0" arrivalPos="289.29" arrivalSpeed="11.42" duration="123.00" routeLength="934.45" waitingTime="32.40" waitingCount="1" stopTime="0.00" timeLoss="41.01" rerouteNo="0" devices="tripinfo_HDV_5" vType="HDV" speedFactor="0.83" vaporized=""/>
    <tripinfo id="CAV_15" depart="74.00" departLane="j9tj10_0" departPos="4.10" departSpeed="0.00" departDelay="0.00" arrival="150.40" arrivalLane="j5tj4_0" arrivalPos="423.23" arrivalSpeed="43.44" duration="76.40" routeLength="1146.53" waitingTime="0.00" waitingCount="0" stopTime="0.00" timeLoss="-14.05" rerouteNo="0" devices="tripinfo_CAV_15" vType="CAV" speedFactor="0.93" vaporized=""/>
    <tripinfo id="HDV_1" depart="7.00" departLane="j15tj11_0" departPos="4.10" departSpeed="0.00" departDelay="0.00" arrival="160.00" arrivalLane="j5tj1_0" arrivalPos="186.79" arrivalSpeed="12.92" duration="153.00" routeLength="1105.95" waitingTime="56.60" waitingCount="1" stopTime="0.00" timeLoss="66.73" rerouteNo="0" devices="tripinfo_HDV_1" vType="HDV" speedFactor="0.94" vaporized=""/>
